[Molden Format]
[GTO]
    1 0
 s   3 1.00
       6.3624214    0.1543289700
       1.1589230    0.5353281400
       0.3136498    0.4446345400

    2 0
 s   3 1.00
       3.4252509    0.1543289700
       0.6239137    0.5353281400
       0.1688554    0.4446345400

[TITLE]
*** Dalton interface to Molden, wave function type : HF            12Nov20   16:
[Atoms] AU
He         1     2        -1.1728925345        -2.4468589606         0.102519532
H          2     1        -4.7395143797        -2.6116033945         0.076121947
[5D7F]
[9G]
[MO]
Sym= A
Ene=    0.0000
Spin= Alpha
Occup=  2.0000
    1        0.998051
    2        0.020630
Sym= A
Ene=    0.0000
Spin= Alpha
Occup=  1.0000
    1       -0.105092
    2        1.003356
[End of Molden output from Dalton]
