[Molden Format]
[GTO]
    1 0
 s   3 1.00
       3.4252509    0.1543289700
       0.6239137    0.5353281400
       0.1688554    0.4446345400

    2 0
 s   3 1.00
       3.4252509    0.1543289700
       0.6239137    0.5353281400
       0.1688554    0.4446345400

[TITLE]
*** Dalton interface to Molden, wave function type : HF            12Nov20   16:
[Atoms] AU
A          1     1         0.0000000000         0.0000000000         0.000000000
B          2     1         0.0000000000         0.0000000000         1.398397332
[5D7F]
[9G]
[MO]
Sym= A
Ene=   -0.5786
Spin= Alpha
Occup=  2.0000
    1        0.548842
    2        0.548842
Sym= A
Ene=    0.6711
Spin= Alpha
Occup=  0.0000
    1       -1.212452
    2        1.212452
[End of Molden output from Dalton]
