[Molden Format]
[GTO]

    1 0
 s  11 1.00
    5484.6717000    0.0018311000
     825.2349500    0.0139501000
     188.0469600    0.0684451000
      52.9645000    0.2327143000
      16.8975700    0.4701930000
       5.7996353    0.3585209000
      15.5396160    0.0000000000
       3.5999336    0.0000000000
       1.0137618    0.0000000000
       0.2700058    0.0000000000
       0.0845000    0.0000000000
 s  11 1.00
    5484.6717000    0.0000000000
     825.2349500    0.0000000000
     188.0469600    0.0000000000
      52.9645000    0.0000000000
      16.8975700    0.0000000000
       5.7996353    0.0000000000
      15.5396160   -0.1107775000
       3.5999336   -0.1480263000
       1.0137618    1.1307670000
       0.2700058    0.0000000000
       0.0845000    0.0000000000
 s  11 1.00
    5484.6717000    0.0000000000
     825.2349500    0.0000000000
     188.0469600    0.0000000000
      52.9645000    0.0000000000
      16.8975700    0.0000000000
       5.7996353    0.0000000000
      15.5396160    0.0000000000
       3.5999336    0.0000000000
       1.0137618    0.0000000000
       0.2700058    1.0000000000
       0.0845000    0.0000000000
 s  11 1.00
    5484.6717000    0.0000000000
     825.2349500    0.0000000000
     188.0469600    0.0000000000
      52.9645000    0.0000000000
      16.8975700    0.0000000000
       5.7996353    0.0000000000
      15.5396160    0.0000000000
       3.5999336    0.0000000000
       1.0137618    0.0000000000
       0.2700058    0.0000000000
       0.0845000    1.0000000000
 p   5 1.00
      15.5396160    0.0708743000
       3.5999336    0.3397528000
       1.0137618    0.7271586000
       0.2700058    0.0000000000
       0.0845000    0.0000000000
 p   5 1.00
      15.5396160    0.0000000000
       3.5999336    0.0000000000
       1.0137618    0.0000000000
       0.2700058    1.0000000000
       0.0845000    0.0000000000
 p   5 1.00
      15.5396160    0.0000000000
       3.5999336    0.0000000000
       1.0137618    0.0000000000
       0.2700058    0.0000000000
       0.0845000    1.0000000000
 d   1 1.00
       0.8000000    1.0000000000

    2 0
 s   5 1.00
      18.7311370    0.0334946000
       2.8253937    0.2347269500
       0.6401217    0.8137573300
       0.1612778    0.0000000000
       0.0360000    0.0000000000
 s   5 1.00
      18.7311370    0.0000000000
       2.8253937    0.0000000000
       0.6401217    0.0000000000
       0.1612778    1.0000000000
       0.0360000    0.0000000000
 s   5 1.00
      18.7311370    0.0000000000
       2.8253937    0.0000000000
       0.6401217    0.0000000000
       0.1612778    0.0000000000
       0.0360000    1.0000000000
 p   1 1.00
       1.1000000    1.0000000000

    3 0
 s   5 1.00
      18.7311370    0.0334946000
       2.8253937    0.2347269500
       0.6401217    0.8137573300
       0.1612778    0.0000000000
       0.0360000    0.0000000000
 s   5 1.00
      18.7311370    0.0000000000
       2.8253937    0.0000000000
       0.6401217    0.0000000000
       0.1612778    1.0000000000
       0.0360000    0.0000000000
 s   5 1.00
      18.7311370    0.0000000000
       2.8253937    0.0000000000
       0.6401217    0.0000000000
       0.1612778    0.0000000000
       0.0360000    1.0000000000
 p   1 1.00
       1.1000000    1.0000000000
[SCFCONV]
scf-first  1  THROUGH   9
      -75.8557522436
      -76.0221753759
      -76.0283121121
      -76.0290766073
      -76.0292188767
      -76.0292299142
      -76.0292304626
      -76.0292304706
      -76.0292304708

[5D]

[MO]
Sym= A  
Ene=  -20.5818
Spin= Alpha
Occup= 2.0000
    1       -0.995736
    2       -0.022295
    3        0.007081
    4       -0.004092
    5       -0.000000
    6       -0.001885
    7        0.000000
    8       -0.000000
    9        0.000340
   10       -0.000000
   11        0.000000
   12       -0.000355
   13        0.000000
   14        0.000395
   15        0.000000
   16       -0.000000
   17       -0.000175
   18       -0.000000
   19        0.000299
   20        0.000089
   21        0.000775
   22       -0.000884
   23       -0.000706
   24       -0.000000
   25        0.000299
   26        0.000089
   27        0.000775
   28        0.000884
   29       -0.000706
   30       -0.000000
Sym= A  
Ene=   -1.3493
Spin= Alpha
Occup= 2.0000
    1        0.212746
    2       -0.473925
    3       -0.451206
    4       -0.002991
    5       -0.000000
    6       -0.082146
    7       -0.000000
    8        0.000000
    9       -0.035952
   10       -0.000000
   11        0.000000
   12       -0.006006
   13       -0.000000
   14        0.004463
   15        0.000000
   16        0.000000
   17        0.000987
   18        0.000000
   19       -0.141158
   20       -0.000199
   21       -0.005054
   22        0.021325
   23        0.013721
   24       -0.000000
   25       -0.141158
   26       -0.000199
   27       -0.005054
   28       -0.021325
   29        0.013721
   30       -0.000000
Sym= A  
Ene=   -0.7121
Spin= Alpha
Occup= 2.0000
    1        0.000000
    2       -0.000000
    3       -0.000000
    4       -0.000000
    5       -0.504713
    6        0.000000
    7       -0.000000
    8       -0.284829
    9       -0.000000
   10       -0.000000
   11        0.011207
   12       -0.000000
   13       -0.000000
   14        0.000000
   15       -0.000000
   16        0.000000
   17       -0.000000
   18       -0.033925
   19       -0.237248
   20       -0.129806
   21       -0.023381
   22        0.011430
   23        0.018597
   24       -0.000000
   25        0.237248
   26        0.129806
   27        0.023381
   28        0.011430
   29       -0.018597
   30       -0.000000
Sym= A  
Ene=   -0.5810
Spin= Alpha
Occup= 2.0000
    1       -0.068450
    2        0.171121
    3        0.269608
    4        0.052054
    5        0.000000
    6       -0.555843
    7       -0.000000
    8        0.000000
    9       -0.359646
   10       -0.000000
   11        0.000000
   12       -0.049056
   13       -0.000000
   14        0.016971
   15       -0.000000
   16        0.000000
   17        0.021556
   18       -0.000000
   19       -0.146794
   20       -0.092349
   21       -0.003163
   22        0.017524
   23       -0.004592
   24       -0.000000
   25       -0.146794
   26       -0.092349
   27       -0.003163
   28       -0.017524
   29       -0.004592
   30       -0.000000
Sym= A  
Ene=   -0.5082
Spin= Alpha
Occup= 2.0000
    1        0.000000
    2       -0.000000
    3       -0.000000
    4        0.000000
    5        0.000000
    6        0.000000
    7       -0.638213
    8        0.000000
    9        0.000000
   10       -0.450940
   11        0.000000
   12        0.000000
   13       -0.087855
   14        0.000000
   15        0.000000
   16       -0.026491
   17       -0.000000
   18       -0.000000
   19        0.000000
   20        0.000000
   21        0.000000
   22       -0.000000
   23       -0.000000
   24       -0.021219
   25        0.000000
   26        0.000000
   27       -0.000000
   28        0.000000
   29        0.000000
   30       -0.021219
Sym= A  
Ene=    0.0417
Spin= Alpha
Occup= 0.0000
    1        0.028747
    2       -0.094939
    3       -0.058443
    4       -1.137823
    5       -0.000000
    6       -0.080353
    7        0.000000
    8        0.000000
    9       -0.107194
   10        0.000000
   11       -0.000000
   12       -0.156999
   13        0.000000
   14        0.001834
   15        0.000000
   16       -0.000000
   17        0.003455
   18        0.000000
   19        0.006641
   20        0.225417
   21        0.838423
   22        0.008014
   23        0.005542
   24        0.000000
   25        0.006641
   26        0.225417
   27        0.838423
   28       -0.008014
   29        0.005542
   30        0.000000
Sym= A  
Ene=    0.0718
Spin= Alpha
Occup= 0.0000
    1       -0.000000
    2        0.000000
    3        0.000000
    4       -0.000000
    5       -0.099685
    6        0.000000
    7        0.000000
    8       -0.019841
    9       -0.000000
   10        0.000000
   11       -0.551500
   12       -0.000000
   13        0.000000
   14        0.000000
   15        0.000000
   16       -0.000000
   17       -0.000000
   18        0.002451
   19       -0.017304
   20        0.097218
   21        2.482666
   22        0.007619
   23        0.007848
   24        0.000000
   25        0.017304
   26       -0.097218
   27       -2.482666
   28        0.007619
   29       -0.007848
   30        0.000000
Sym= A  
Ene=    0.2406
Spin= Alpha
Occup= 0.0000
    1        0.003259
    2        0.007180
    3       -0.080472
    4        1.666623
    5       -0.000000
    6       -0.203190
    7        0.000000
    8       -0.000000
    9       -0.404858
   10        0.000000
   11        0.000000
   12        1.629552
   13        0.000000
   14        0.008419
   15        0.000000
   16       -0.000000
   17        0.005011
   18       -0.000000
   19        0.019557
   20       -0.617053
   21       -0.419469
   22        0.001689
   23        0.006521
   24        0.000000
   25        0.019557
   26       -0.617053
   27       -0.419469
   28       -0.001689
   29        0.006521
   30        0.000000
Sym= A  
Ene=    0.2525
Spin= Alpha
Occup= 0.0000
    1        0.000000
    2       -0.000000
    3       -0.000000
    4        0.000000
    5        0.000000
    6        0.000000
    7       -0.209277
    8        0.000000
    9        0.000000
   10       -0.522479
   11        0.000000
   12        0.000000
   13        1.234960
   14        0.000000
   15       -0.000000
   16       -0.008924
   17       -0.000000
   18       -0.000000
   19        0.000000
   20        0.000000
   21        0.000000
   22       -0.000000
   23       -0.000000
   24        0.006474
   25        0.000000
   26        0.000000
   27       -0.000000
   28        0.000000
   29        0.000000
   30        0.006474
Sym= A  
Ene=    0.2877
Spin= Alpha
Occup= 0.0000
    1       -0.096218
    2        0.111107
    3        1.364540
    4       -2.381990
    5        0.000000
    6        0.101217
    7       -0.000000
    8        0.000000
    9        0.069120
   10       -0.000000
   11       -0.000000
   12        0.074600
   13       -0.000000
   14       -0.001988
   15        0.000000
   16        0.000000
   17       -0.002314
   18        0.000000
   19       -0.079010
   20       -0.259343
   21        0.734325
   22       -0.005542
   23        0.002705
   24       -0.000000
   25       -0.079010
   26       -0.259343
   27        0.734325
   28        0.005542
   29        0.002705
   30       -0.000000
Sym= A  
Ene=    0.3145
Spin= Alpha
Occup= 0.0000
    1       -0.000000
    2        0.000000
    3        0.000000
    4       -0.000000
    5       -0.108979
    6        0.000000
    7        0.000000
    8       -0.276353
    9        0.000000
   10        0.000000
   11        2.438272
   12       -0.000000
   13        0.000000
   14       -0.000000
   15        0.000000
   16       -0.000000
   17       -0.000000
   18       -0.028272
   19       -0.014132
   20       -0.978839
   21       -1.841647
   22        0.005517
   23       -0.005227
   24        0.000000
   25        0.014132
   26        0.978839
   27        1.841647
   28        0.005517
   29        0.005227
   30        0.000000
Sym= A  
Ene=    0.3520
Spin= Alpha
Occup= 0.0000
    1       -0.000000
    2        0.000000
    3        0.000000
    4        0.000000
    5       -0.324195
    6        0.000000
    7       -0.000000
    8       -0.870266
    9        0.000000
   10       -0.000000
   11       -0.420935
   12        0.000000
   13       -0.000000
   14       -0.000000
   15       -0.000000
   16        0.000000
   17       -0.000000
   18       -0.017396
   19        0.114014
   20        1.787840
   21       -0.748683
   22       -0.013567
   23       -0.001743
   24       -0.000000
   25       -0.114014
   26       -1.787840
   27        0.748683
   28       -0.013567
   29        0.001743
   30       -0.000000
Sym= A  
Ene=    0.4034
Spin= Alpha
Occup= 0.0000
    1        0.024306
    2       -0.011593
    3       -0.565459
    4       -4.682301
    5       -0.000000
    6       -0.186823
    7       -0.000000
    8       -0.000000
    9       -0.724010
   10       -0.000000
   11       -0.000000
   12       -1.343858
   13       -0.000000
   14        0.002278
   15        0.000000
   16        0.000000
   17        0.017331
   18        0.000000
   19        0.104413
   20        2.761656
   21        0.418561
   22       -0.014135
   23       -0.014493
   24       -0.000000
   25        0.104413
   26        2.761656
   27        0.418561
   28        0.014135
   29       -0.014493
   30       -0.000000
Sym= A  
Ene=    1.1654
Spin= Alpha
Occup= 0.0000
    1       -0.000000
    2        0.000000
    3       -0.000000
    4       -0.000000
    5       -0.483467
    6        0.000000
    7       -0.000000
    8        0.502914
    9       -0.000000
   10       -0.000000
   11        0.721222
   12       -0.000000
   13       -0.000000
   14        0.000000
   15       -0.000000
   16        0.000000
   17       -0.000000
   18        0.354307
   19        0.684510
   20       -1.732225
   21        0.130560
   22        0.114170
   23        0.150036
   24       -0.000000
   25       -0.684510
   26        1.732225
   27       -0.130560
   28        0.114170
   29       -0.150036
   30       -0.000000
Sym= A  
Ene=    1.2690
Spin= Alpha
Occup= 0.0000
    1        0.034709
    2       -0.551495
    3        1.347485
    4        1.839737
    5       -0.000000
    6       -0.584009
    7       -0.000000
    8        0.000000
    9        0.911911
   10       -0.000000
   11        0.000000
   12        0.570228
   13       -0.000000
   14       -0.214242
   15       -0.000000
   16        0.000000
   17        0.114766
   18        0.000000
   19        0.597846
   20       -2.044792
   21        0.010855
   22        0.195914
   23        0.096781
   24       -0.000000
   25        0.597846
   26       -2.044792
   27        0.010855
   28       -0.195914
   29        0.096781
   30       -0.000000
Sym= A  
Ene=    1.4046
Spin= Alpha
Occup= 0.0000
    1       -0.000000
    2       -0.000000
    3       -0.000000
    4        0.000000
    5        0.000000
    6        0.000000
    7       -0.991240
    8        0.000000
    9        0.000000
   10        1.415954
   11        0.000000
   12        0.000000
   13       -0.644554
   14        0.000000
   15        0.000000
   16        0.034982
   17       -0.000000
   18       -0.000000
   19        0.000000
   20        0.000000
   21        0.000000
   22       -0.000000
   23       -0.000000
   24        0.018058
   25        0.000000
   26        0.000000
   27       -0.000000
   28        0.000000
   29        0.000000
   30        0.018058
Sym= A  
Ene=    1.4094
Spin= Alpha
Occup= 0.0000
    1       -0.042098
    2        0.180952
    3        0.042584
    4       -0.744964
    5       -0.000000
    6       -0.720546
    7       -0.000000
    8        0.000000
    9        1.346147
   10       -0.000000
   11       -0.000000
   12       -0.850722
   13       -0.000000
   14        0.122486
   15        0.000000
   16        0.000000
   17       -0.171048
   18       -0.000000
   19       -0.545642
   20        0.582845
   21        0.086170
   22       -0.032022
   23        0.101461
   24       -0.000000
   25       -0.545642
   26        0.582845
   27        0.086170
   28        0.032022
   29        0.101461
   30       -0.000000
Sym= A  
Ene=    1.4322
Spin= Alpha
Occup= 0.0000
    1        0.000000
    2       -0.000000
    3        0.000000
    4        0.000000
    5       -0.766927
    6        0.000000
    7        0.000000
    8        1.843556
    9       -0.000000
   10        0.000000
   11       -1.205426
   12        0.000000
   13        0.000000
   14       -0.000000
   15        0.000000
   16       -0.000000
   17        0.000000
   18       -0.068747
   19       -0.457183
   20        0.114855
   21        0.848855
   22        0.147445
   23        0.053706
   24        0.000000
   25        0.457183
   26       -0.114855
   27       -0.848855
   28        0.147445
   29       -0.053706
   30        0.000000
Sym= A  
Ene=    1.7522
Spin= Alpha
Occup= 0.0000
    1       -0.039441
    2        1.066841
    3       -1.740503
    4        1.341828
    5       -0.000000
    6       -0.198695
    7        0.000000
    8        0.000000
    9        0.379850
   10        0.000000
   11       -0.000000
   12        0.016103
   13        0.000000
   14        0.082839
   15        0.000000
   16       -0.000000
   17        0.489565
   18        0.000000
   19        0.047923
   20       -0.108668
   21       -0.232377
   22        0.110077
   23       -0.252155
   24        0.000000
   25        0.047923
   26       -0.108668
   27       -0.232377
   28       -0.110077
   29       -0.252155
   30        0.000000
Sym= A  
Ene=    1.7877
Spin= Alpha
Occup= 0.0000
    1        0.000000
    2        0.000000
    3        0.000000
    4        0.000000
    5       -0.000000
    6       -0.000000
    7        0.000000
    8       -0.000000
    9       -0.000000
   10       -0.000000
   11       -0.000000
   12       -0.000000
   13        0.000000
   14        0.000000
   15        0.674592
   16        0.000000
   17       -0.000000
   18        0.000000
   19       -0.000000
   20       -0.000000
   21       -0.000000
   22        0.000000
   23        0.000000
   24        0.356217
   25       -0.000000
   26       -0.000000
   27        0.000000
   28        0.000000
   29        0.000000
   30       -0.356217
Sym= A  
Ene=    1.8659
Spin= Alpha
Occup= 0.0000
    1        0.024607
    2       -1.195734
    3        2.128341
    4       -1.643583
    5        0.000000
    6        0.060829
    7        0.000000
    8       -0.000000
    9        0.379654
   10        0.000000
   11        0.000000
   12       -0.304550
   13        0.000000
   14        0.439778
   15        0.000000
   16       -0.000000
   17        0.348830
   18       -0.000000
   19       -0.402992
   20        0.270050
   21        0.275555
   22        0.157581
   23       -0.099790
   24        0.000000
   25       -0.402992
   26        0.270050
   27        0.275555
   28       -0.157581
   29       -0.099790
   30        0.000000
Sym= A  
Ene=    1.9130
Spin= Alpha
Occup= 0.0000
    1       -0.000000
    2       -0.000000
    3       -0.000000
    4        0.000000
    5        0.000000
    6        0.000000
    7        0.029939
    8        0.000000
    9        0.000000
   10       -0.289296
   11        0.000000
   12        0.000000
   13        0.073784
   14        0.000000
   15       -0.000000
   16        0.783816
   17       -0.000000
   18       -0.000000
   19        0.000000
   20        0.000000
   21        0.000000
   22       -0.000000
   23       -0.000000
   24        0.302640
   25        0.000000
   26        0.000000
   27       -0.000000
   28        0.000000
   29        0.000000
   30        0.302640
Sym= A  
Ene=    2.5526
Spin= Alpha
Occup= 0.0000
    1        0.000000
    2       -0.000000
    3        0.000000
    4       -0.000000
    5        0.053379
    6       -0.000000
    7       -0.000000
    8       -0.516243
    9       -0.000000
   10       -0.000000
   11        0.132673
   12       -0.000000
   13       -0.000000
   14        0.000000
   15       -0.000000
   16        0.000000
   17        0.000000
   18        0.166921
   19        0.121428
   20        0.026256
   21       -0.094884
   22        0.472202
   23       -0.584066
   24       -0.000000
   25       -0.121428
   26       -0.026256
   27        0.094884
   28        0.472202
   29        0.584066
   30       -0.000000
Sym= A  
Ene=    2.5850
Spin= Alpha
Occup= 0.0000
    1       -0.003531
    2        0.740564
    3       -1.225546
    4        0.742815
    5       -0.000000
    6        0.187805
    7       -0.000000
    8        0.000000
    9       -0.646323
   10       -0.000000
   11       -0.000000
   12        0.272091
   13       -0.000000
   14        0.855343
   15        0.000000
   16        0.000000
   17       -0.274949
   18        0.000000
   19        0.752627
   20       -0.314042
   21       -0.096003
   22        0.132693
   23        0.149558
   24       -0.000000
   25        0.752627
   26       -0.314042
   27       -0.096003
   28       -0.132693
   29        0.149558
   30       -0.000000
Sym= A  
Ene=    2.8368
Spin= Alpha
Occup= 0.0000
    1       -0.000000
    2       -0.000000
    3        0.000000
    4       -0.000000
    5       -0.432978
    6       -0.000000
    7       -0.000000
    8        0.610411
    9        0.000000
   10       -0.000000
   11       -0.480401
   12       -0.000000
   13       -0.000000
   14       -0.000000
   15       -0.000000
   16        0.000000
   17       -0.000000
   18        0.721022
   19       -0.610747
   20        0.584661
   21        0.141499
   22       -0.365004
   23       -0.254413
   24       -0.000000
   25        0.610747
   26       -0.584661
   27       -0.141499
   28       -0.365004
   29        0.254413
   30       -0.000000
Sym= A  
Ene=    2.9488
Spin= Alpha
Occup= 0.0000
    1        0.000000
    2       -0.000000
    3       -0.000000
    4        0.000000
    5        0.000000
    6        0.000000
    7        0.000000
    8        0.000000
    9        0.000000
   10       -0.000000
   11        0.000000
   12        0.000000
   13        0.000000
   14       -0.000000
   15        0.881520
   16       -0.000000
   17       -0.000000
   18       -0.000000
   19        0.000000
   20        0.000000
   21        0.000000
   22       -0.000000
   23       -0.000000
   24       -0.703698
   25        0.000000
   26        0.000000
   27       -0.000000
   28        0.000000
   29       -0.000000
   30        0.703698
Sym= A  
Ene=    2.9709
Spin= Alpha
Occup= 0.0000
    1        0.000000
    2       -0.000000
    3       -0.000000
    4        0.000000
    5        0.000000
    6        0.000000
    7        0.024676
    8        0.000000
    9        0.000000
   10       -0.504367
   11        0.000000
   12        0.000000
   13        0.097937
   14        0.000000
   15       -0.000000
   16       -0.730602
   17       -0.000000
   18       -0.000000
   19        0.000000
   20        0.000000
   21        0.000000
   22       -0.000000
   23       -0.000000
   24        0.760735
   25        0.000000
   26        0.000000
   27       -0.000000
   28        0.000000
   29        0.000000
   30        0.760735
Sym= A  
Ene=    3.3461
Spin= Alpha
Occup= 0.0000
    1       -0.004060
    2        0.108097
    3       -0.133584
    4       -0.202052
    5       -0.000000
    6        0.081585
    7       -0.000000
    8        0.000000
    9       -0.507472
   10       -0.000000
   11       -0.000000
   12        0.008218
   13       -0.000000
   14        0.057326
   15        0.000000
   16        0.000000
   17        0.983234
   18        0.000000
   19        0.034624
   20        0.149472
   21        0.010773
   22       -0.434978
   23        0.682717
   24       -0.000000
   25        0.034624
   26        0.149472
   27        0.010773
   28        0.434978
   29        0.682717
   30       -0.000000
Sym= A  
Ene=    3.7550
Spin= Alpha
Occup= 0.0000
    1       -0.110546
    2        0.106074
    3        1.998286
    4        0.269212
    5       -0.000000
    6        0.534576
    7        0.000000
    8       -0.000000
    9        0.961926
   10        0.000000
   11        0.000000
   12        0.064447
   13        0.000000
   14       -0.792685
   15        0.000000
   16       -0.000000
   17        0.225174
   18       -0.000000
   19       -0.912545
   20       -0.748953
   21        0.068671
   22        0.902066
   23        0.564949
   24        0.000000
   25       -0.912545
   26       -0.748953
   27        0.068671
   28       -0.902066
   29        0.564949
   30        0.000000
Sym= A  
Ene=    3.9451
Spin= Alpha
Occup= 0.0000
    1        0.000000
    2       -0.000000
    3       -0.000000
    4       -0.000000
    5       -0.653679
    6       -0.000000
    7       -0.000000
    8       -1.480515
    9       -0.000000
   10       -0.000000
   11        0.357108
   12       -0.000000
   13       -0.000000
   14        0.000000
   15       -0.000000
   16        0.000000
   17       -0.000000
   18       -1.505899
   19        1.252598
   20        0.361574
   21       -0.372958
   22       -0.796254
   23       -0.684719
   24       -0.000000
   25       -1.252598
   26       -0.361574
   27        0.372958
   28       -0.796254
   29        0.684719
   30       -0.000000
[Atoms] AU
O          1     8         0.0000000000        -0.2249058930         0.0000000000
H          2     1         1.4523500000         0.8996230000         0.0000000000
H          3     1        -1.4523500000         0.8996230000         0.0000000000
